relax                                   
   1.00000000000000     
     4.0599999999999996    0.0000000000000000    0.0000000000000000
     2.0299999999999998    3.5160631389999999    0.0000000000000000
     0.0000000000000000    0.0000000000000000   16.0000000000000000
   Ge
     2
Direct
  0.3333333333333357  0.3333333333333357  0.4884681413364191
  0.6666666666666643  0.6666666666666643  0.5315318396635789
 
  0.00000000E+00  0.00000000E+00  0.00000000E+00
  0.00000000E+00  0.00000000E+00  0.00000000E+00
